# vtk DataFile Version 2.0
MES Results
ASCII
DATASET UNSTRUCTURED_GRID

POINTS 16 float
0.100000001 0.00499999989 0.0
0.0666666701 0.00499999989 0.0
0.0333333351 0.00499999989 0.0
0.0 0.00499999989 0.0
0.100000001 -0.0283333343 0.0
0.0666666701 -0.0283333343 0.0
0.0333333351 -0.0283333343 0.0
0.0 -0.0283333343 0.0
0.100000001 -0.0616666675 0.0
0.0666666701 -0.0616666675 0.0
0.0333333351 -0.0616666675 0.0
0.0 -0.0616666675 0.0
0.100000001 -0.0949999988 0.0
0.0666666701 -0.0949999988 0.0
0.0333333351 -0.0949999988 0.0
0.0 -0.0949999988 0.0

CELLS 9 45
4 0 1 5 4
4 1 2 6 5
4 2 3 7 6
4 4 5 9 8
4 5 6 10 9
4 6 7 11 10
4 8 9 13 12
4 9 10 14 13
4 10 11 15 14

CELL_TYPES9
9
9
9
9
9
9
9
9
9

POINT_DATA 16
SCALARS Temp float 1
LOOKUP_TABLE default
818.9921879953173
713.5925852125083
713.592560529116
818.9921590552714
713.5925735410817
579.0344709634016
579.0344566560206
713.5925646009297
713.5925905256064
579.0344808082423
579.0344665008606
713.592581585454
818.9922079088233
713.5925913641838
713.5925666807914
818.9921789687785
