# vtk DataFile Version 2.0
MES Results
ASCII
DATASET UNSTRUCTURED_GRID

POINTS 16 float
0.100000001 0.00499999989 0.0
0.0666666701 0.00499999989 0.0
0.0333333351 0.00499999989 0.0
0.0 0.00499999989 0.0
0.100000001 -0.0283333343 0.0
0.0666666701 -0.0283333343 0.0
0.0333333351 -0.0283333343 0.0
0.0 -0.0283333343 0.0
0.100000001 -0.0616666675 0.0
0.0666666701 -0.0616666675 0.0
0.0333333351 -0.0616666675 0.0
0.0 -0.0616666675 0.0
0.100000001 -0.0949999988 0.0
0.0666666701 -0.0949999988 0.0
0.0333333351 -0.0949999988 0.0
0.0 -0.0949999988 0.0

CELLS 9 45
4 0 1 5 4
4 1 2 6 5
4 2 3 7 6
4 4 5 9 8
4 5 6 10 9
4 6 7 11 10
4 8 9 13 12
4 9 10 14 13
4 10 11 15 14

CELL_TYPES9
9
9
9
9
9
9
9
9
9

POINT_DATA 16
SCALARS Temp float 1
LOOKUP_TABLE default
881.0576330988969
792.7169789246883
792.7169579351355
881.0576083818764
792.7169694246923
679.9076271785149
679.9076147830419
792.7169613112613
792.7169838675038
679.9076357077804
679.9076233123074
792.7169757540727
881.0576501065591
792.7169845075013
792.7169635179481
881.0576253895399
