# vtk DataFile Version 2.0
MES Results
ASCII
DATASET UNSTRUCTURED_GRID

POINTS 16 float
0.100000001 0.00499999989 0.0
0.0666666701 0.00499999989 0.0
0.0333333351 0.00499999989 0.0
0.0 0.00499999989 0.0
0.100000001 -0.0283333343 0.0
0.0666666701 -0.0283333343 0.0
0.0333333351 -0.0283333343 0.0
0.0 -0.0283333343 0.0
0.100000001 -0.0616666675 0.0
0.0666666701 -0.0616666675 0.0
0.0333333351 -0.0616666675 0.0
0.0 -0.0616666675 0.0
0.100000001 -0.0949999988 0.0
0.0666666701 -0.0949999988 0.0
0.0333333351 -0.0949999988 0.0
0.0 -0.0949999988 0.0

CELLS 9 45
4 0 1 5 4
4 1 2 6 5
4 2 3 7 6
4 4 5 9 8
4 5 6 10 9
4 6 7 11 10
4 8 9 13 12
4 9 10 14 13
4 10 11 15 14

CELL_TYPES9
9
9
9
9
9
9
9
9
9

POINT_DATA 16
SCALARS Temp float 1
LOOKUP_TABLE default
783.3828510547476
668.364304701029
668.3642780486716
783.3828198785989
668.3642916952315
521.5862958005338
521.586280584686
668.3642825148667
668.3643100345917
521.5863062704858
521.5862910546376
668.3643008542261
783.3828725069054
668.3643110179939
668.3642843656362
783.3828413307581
