# vtk DataFile Version 2.0
MES Results
ASCII
DATASET UNSTRUCTURED_GRID

POINTS 16 float
0.100000001 0.00499999989 0.0
0.0666666701 0.00499999989 0.0
0.0333333351 0.00499999989 0.0
0.0 0.00499999989 0.0
0.100000001 -0.0283333343 0.0
0.0666666701 -0.0283333343 0.0
0.0333333351 -0.0283333343 0.0
0.0 -0.0283333343 0.0
0.100000001 -0.0616666675 0.0
0.0666666701 -0.0616666675 0.0
0.0333333351 -0.0616666675 0.0
0.0 -0.0616666675 0.0
0.100000001 -0.0949999988 0.0
0.0666666701 -0.0949999988 0.0
0.0333333351 -0.0949999988 0.0
0.0 -0.0949999988 0.0

CELLS 9 45
4 0 1 5 4
4 1 2 6 5
4 2 3 7 6
4 4 5 9 8
4 5 6 10 9
4 6 7 11 10
4 8 9 13 12
4 9 10 14 13
4 10 11 15 14

CELL_TYPES9
9
9
9
9
9
9
9
9
9

POINT_DATA 16
SCALARS Temp float 1
LOOKUP_TABLE default
744.0633465986615
618.7747198875642
618.7746912527232
744.0633131502906
618.7747053461743
459.0369201694777
459.0369041791315
618.7746961296148
618.7747250496725
459.0369311723583
459.0369151820118
618.7747158331118
744.0633696143246
618.7747262294349
618.7746975945929
744.0633361659551
