# vtk DataFile Version 2.0
MES Results
ASCII
DATASET UNSTRUCTURED_GRID

POINTS 16 float
0.100000001 0.00499999989 0.0
0.0666666701 0.00499999989 0.0
0.0333333351 0.00499999989 0.0
0.0 0.00499999989 0.0
0.100000001 -0.0283333343 0.0
0.0666666701 -0.0283333343 0.0
0.0333333351 -0.0283333343 0.0
0.0 -0.0283333343 0.0
0.100000001 -0.0616666675 0.0
0.0666666701 -0.0616666675 0.0
0.0333333351 -0.0616666675 0.0
0.0 -0.0616666675 0.0
0.100000001 -0.0949999988 0.0
0.0666666701 -0.0949999988 0.0
0.0333333351 -0.0949999988 0.0
0.0 -0.0949999988 0.0

CELLS 9 45
4 0 1 5 4
4 1 2 6 5
4 2 3 7 6
4 4 5 9 8
4 5 6 10 9
4 6 7 11 10
4 8 9 13 12
4 9 10 14 13
4 10 11 15 14

CELL_TYPES9
9
9
9
9
9
9
9
9
9

POINT_DATA 16
SCALARS Temp float 1
LOOKUP_TABLE default
851.4310418466617
754.920963557762
754.9209407710144
851.4310150678683
754.9209530451781
631.6892670148579
631.6892536635103
754.920944478524
754.9209687246304
631.6892762018563
631.6892628505082
754.9209601579761
851.4310602730205
754.9209694524353
754.9209466656879
851.4310334942282
